smiles,homo,lumo,Name
[H][Si]1C[Si]2C[Si]3C[Si]4C[Si]([H])C[Si]5C6[Si]([H])C[Si]7C8[Si]([H])C[Si]([H])C9[Si]([H])C%10[Si]([H])C%11[Si]([H])C[Si]([H])C%12[Si]%13C[Si]([H])C%14[Si](C1)C2[Si]1B2[Si]%14C%13[Si]%13C([Si]%11%12)[Si]%10C([Si]98)[Si]8C%13[Si]2N([Si](C45)C31)[Si]6C78,-3.71294095,-3.49171552,90-AHSiC_NR3_4-C_B-N.pdb
[H][Si]1C[Si]2C[Si]([H])C[Si]3C2[Si](C1)C1[Si]([H])C[Si]2O[Si]([H])C[Si]4C5[Si][SH]([Si]([H])C[Si]5C5[Si]([H])C[Si]([H])C6[Si]([H])C[Si]([H])C4[Si]65)[Si]4C[Si]([H])C3[Si]1C24,-3.36300749,-2.69007946,91-AHSiC_NR4_2-C_O-S.pdb
[H][Si]1C[Si]2C[Si]3C[Si]([H])C[Si]4O[Si]35C3[Si]6C4[Si]([H])C[Si]([H])C6[Si]([H])C4[Si]([H])C[Si]([H])C([Si]43)[Si](C1)[SH]25,-3.26368734,-2.43892193,92-NRSiC-SIC1-C_O-S.pdb
OC(O)C1CCC2C3CCC4C5CCC6C7CCC(C(O)O)C8CCCC(C9CCC(C%10CCC(C%11CCCC1C%112)C3C%104)C5C96)C87,-4.79240132,-3.08246208,93-AH_NR4_2_2COOH_edge.pdb
C1CCC2C(C1)CC1CCCC3C1[C@H]2[S@H]1[C@@H]2SCCC4C5CCCC6CC7CCCC8C7C(C65)[C@H]([C@@H]42)[C@H]2C8CCC3[C@@H]21,-3.88763557,-2.96817588,94-AH_NR-2S.pdb
C1CC2CC3CC4CCCC5C6CCC7C8CCC9C%10[C@H]8[C@H]8C%11C%12[S@H]%13C%14C(CCC%15C%16CCC%17C(C1)C2C1C3C(C45)C2C6C7[C@@H]8C3C2C1C%17C%16[C@H]3[C@H]%11[C@@H]%15%14)[C@H]1CCC[C@@H]2CC3C[C@H]4CCC[C@H]9C4[C@H](C3[C@H]%13C21)[S@H]%10%12,-3.37198712,-3.16708829,95-AH_NR4_4-2S.pdb
[H][Si]1C[Si]2C[Si]3C[Si]([H])C[Si]4C5[Si]([H])C[Si]([H])C6[Si]([H])C7[Si]([H])C[Si]([H])C8[Si](C1)C2[Si](C34)C([Si]78)[Si]65,-4.23865747,-2.94178121,96-NR-SIC1.pdb
[H][Si]1C[Si]2C3[Si]([H])C[Si]4C5[Si]([H])C(NO)[Si]([H])C6[Si]5C5[Si]7C4[Si]3C3[Si]4C2[Si](C1)C1[Si]([H])C[Si]2C8[Si]([H])C[Si]([H])C9[Si]%10C[Si]([H])C%11[Si]%12C[Si]([SH](O)O)C[Si]%13C%14[Si]([H])C[Si]%15C%16[Si]([H])C[Si]([H])C%17[Si]%18C[Si]([H])C%19[Si]%20C[Si]([H])C[Si]%21C%20[Si]%20C%22[Si]%19C%18[Si]%18C([Si]%17%16)[Si]%16C%15[Si]%14[C@@H]%14[Si](C%12%13)[C@@H]%12[Si]%11C%10[Si]%10C([Si]89)[Si]8C2[Si]1C4[Si]1[C@@H]8[Si]2C%10[Si]%12[C@H]4[Si]%14[C@H]%16[Si]8C%18[Si]%22C9[Si]%10[C@@H]%11[Si](C7[Si]3[C@@H]1[Si]%11[C@@H]2[Si@@]4(C(O)O)[C@@H]%108)[C@H]1[Si]5[C@@H]2[Si]6C[Si]([H])C%21[Si]2[C@]%20(CO)[Si]91,-4.9067,-3.3067,97-AHSiC2-SO2H-NO-COOH.pdb
[H][Si]1C[Si]2C[Si]([H])C[Si]3C2[Si](C1)C1[Si]([H])C[Si]2C4[Si]([H])CB5C6B(C[Si]([H])C([Si]7C[Si]([H])C3[Si]1C27)[Si]64)C1[Si]([H])C[Si]([H])C2[Si]([H])C[Si]([H])C5[Si]12,-4.86178937,-4.21743289,98-AHSiC_NR4_2-2B.pdb
[H][Si]1C[Si]2C[Si]3C[Si]([H])C4[Si]([H])C5[Si]([H])C[Si]6C[Si]7C[Si]([H])C8[Si]([H])C9[Si]([H])C[Si]%10C[Si]%11C[Si]([H])C%12[Si]([H])C1[Si]1C2B2C%13B%14C1[Si]%12C%11[Si]1C%14[Si]%11C([Si]9C%101)[Si]8C7[Si]1C6[Si]5C([Si]4C23)[Si]%13C1%11,-4.88056496,-4.19920152,99-ZH_SiC-2B.pdb
[H][Si]1C[Si]2C[Si]3C[Si]4C[Si]([H])C[Si]5C6[Si]([H])C[Si]([H])C7[Si]([H])C8B9C%10B%11C([Si]([H])C[Si]([H])C%11[Si](C1)C2[Si]%10C3[Si](C45)C9[Si]76)[Si]8[H],-4.88763982,-4.05471111,100-NR-SiC2-2B.pdb
[H][Si]1C[Si]2C[Si]3C[Si]([H])C[Si]4C5[Si]([H])C[Si]([H])C6[Si]([H])C7[Si]([H])C[Si]([H])C8[Si]7C([Si]65)[Si](N2[Si]8C1)N34,-2.9034137,-2.19402293,101-NR-SIC1-C_2N.pdb
OCC1C2CCCC3C4CCCC5CC6CCCC7C8CCCC1C8C(C23)C(C54)C67,-4.78559857,-3.0694008,102-NR-C1-COH-edge.pdb
OCC1C2CCCC3C4CCC5C6CCC7C8CCC[C@H]9C8C8C%10C7C6C6C7C(CCC(C%11CCC[C@@H](C%118)C9N(O)O)C7%10)C7CCC8C9CCCC1C9C(C23)C1C4C5C6C7C81,-4.5088627,-3.96137738,103-AH_NR4_3-COH-NO2.pdb
C1CC2CC3CCCC4C5CCN6C7CCCC8CC9CCCC%10C%11CCC%12C(C1)C2C(C34)C1C%12C%11N(C(C9%10)C87)C6C51,-3.47430048,-2.33252692,104-AH_NR-2N.pdb
C[C@@H]1C2CCOC3CCCC4CC5CCCC6C7CC[C@@H]8C9CCCC%10CC%11CCCC2C%11C(C%109)[C@@H]1[C@@H]8C7OC(C43)C56,-4.04246616,-2.87457004,105-AH_NR-2O.pdb
[H][Si]1C[Si]2C[Si]3C[Si]4C[Si@]([H])C[Si@@]56OSO[Si@@]78C9[Si](C[Si@]([H])[C@@H]57)C5[Si]([H])C[Si]([H])[C@@H]7[Si]([H])[C@H]%10[Si]([H])[C@@H]%11[Si]([H])C[Si]([H])[C@H]%12[Si]%13C[Si]([H])C%14[Si](C1)C2[Si]1C2[Si]%14[C@H]%13[Si]%13C([Si]2[C@@H]8[Si]([C@@H]31)[C@H]46)[Si]9[C@@H]([Si]57)[Si@@]%10(CN)[C@H]%13[Si]%11%12,-4.70641456,-4.14124209,106-AHSiC_NR3_4-CN-SO2H.pdb
[H][Si]1C[Si]2C[Si]3C[Si]([H])C[Si]4C5[Si]([H])C[Si]([H])C6[Si]([H])C7[Si]([H])C[Si]([H])C8[Si](C1)B2[Si](C([Si]87)[Si]65)N34,-4.15756869,-2.91212122,107-NR-SIC1-C_B-N.pdb
OC(O)C1C2CCCC3C4CCC5C6CCCC7C6C6C8C5C4C4C5C(CCC(C9CCC[C@@H](C7C(O)O)C96)C58)C5CCC[C@H]1C5C4C32,-4.43702566,-3.4394704,108-NR_2COOH.pdb
OC(O)C1C2CCCC3C4CCC5C6CCCC7CC8CCCC9C%10CCC%11C%12CCC[C@H]1C%12C(C32)C1C4C5C(C%10C%111)C(C76)C89,-4.25389563,-3.21960552,109-NR_COOH.pdb
C1CC2CC3CCCC4C5CCC6C7CCCC8CC9CCCC%10C%11CCB%12C(C1)C2C(B1C%12C%11C(C6C15)C(C9%10)C87)C34,-4.63185642,-3.60055952,110-AH_NR-2B.pdb
C1CC2CC3CC4CCCC5C6CCC7C8CCC9C%10CCCC%11CC%12CC%13CCCC%14C%15CCC%16C%17CCC%18C(C1)C2C1B2C%19B(C(C45)C31)C6C7C1C%19C(C%17C2%18)C2C%16C%15C3C(C%13%14)C%12C(C%11%10)C4C9C8C1C2C34,-4.10505146,-3.89498254,111-AH_NR4_4-2B.pdb
[H][Si]1C[Si]2C[Si]3C[Si]4C[Si]([H])C[Si]5[C@H]4[Si]4C3[Si]3C2[Si](C1)C1[Si]([H])C[Si]2C6[Si]([H])C[Si]7C8[Si]([H])C[Si]([H])C9[Si]([H])[C@@H]%10[Si]([H])C%11[Si]([H])C[Si]([H])C%12[Si]%13C[Si]([H])[C@@H]%14[Si]%15C[Si]([H])[C@@H]5[Si]5[C@H]%15[Si]%15[C@H]%16[Si]%17C([Si]6C7[Si]6[C@@H]%17[Si@](CO)([C@H]%13[Si]%16%14)[C@@H]([Si]%11%12)[Si]%10[C@@H]6[Si]89)[Si]6C2[Si]1C3[Si]([C@@H]6%15)[C@]45CO,-3.90069685,-3.42096692,112-AH_NRSiC4_4_2COH_surf.pdb
[H][Si]1C[Si]2C[Si]3C[Si]([H])C[Si]4C5[Si]([H])C[Si]6C7B8C9B(C[Si]([H])C%10[Si](C1)C2[Si](C34)C([Si]9%10)[Si]75)C1[Si]([H])C[Si]([H])C2[Si]([H])C3[Si]([H])C[Si]([H])C6[Si]3C8[Si]12,-4.80763948,-3.99593535,113-AHSiC_NR-2B.pdb
[H][Si]1C[Si]2C[Si]3C[Si]4C[Si]([H])C[Si]5C6[Si]([H])C[Si]7C8[Si]([H])C[Si]9C%10[Si]([H])C[Si]([H])C%11[Si]([H])C%12[Si]([H])C%13[Si]([H])C[Si]([H])C%14[Si]%15C[Si]([H])C%16[Si]%17C[Si]([H])C%18[Si](C1)C2[Si]1C3[Si](C45)C2[Si]6C7[Si]3C4[Si](C%17[Si]%18C1[Si]24)C1[Si]%16C%15[SH]2C([Si]%13%14)[Si]%12C([Si]%11%10)[SH]4C9[Si]8C3[Si]1C24,-3.6707639,-3.51511698,114-AHSiC_NR4_4-2S.pdb
[H][Si]1C[Si]2C[Si]3C[Si]([H])C4[Si]([H])C5[Si]([H])C[Si]6C[Si]7C[Si]([H])C8[Si]([H])C9[Si]([H])C[Si]%10C[Si]%11C[Si]([H])C%12[Si]([H])C1[Si]1C2[Si]2C3[Si]4C3[Si]5C6[SH]4C7[Si]8C5[Si]9C%10[Si]6C%11[Si]%12C1[Si]1C2[Si]3C4[SH]5C61,-3.93634326,-2.47728944,115-ZH_SiC-2S.pdb
[H][Si]1C[Si]2[C@H]3[Si]([H])C[Si]([H])[C@H]4[Si]5C[Si@]([H])C[Si]6[C@@H]5[Si]S[Si]5[C@@H]6[Si]([H])C[Si]([H])[C@H]5[Si]5C[Si@]([H])C[Si]6[C@@H]5[Si][C@H]5[Si](O[Si]34)[C@@H]2[Si](C1)[C@@H]1[Si]5[C@@H]6[Si@]([H])C[Si@@]1[H],-4.25661673,-2.53198355,116-AHSiC-C_O-S.pdb
[H][Si]1C[Si]2C[Si]([H])C[Si]3C2[Si](C1)C1[Si]([H])C[Si]2B4[Si]([H])C[Si]5C6[Si]4B([Si]([H])C[Si]6C4[Si]([H])C[Si]([H])C6[Si]([H])C[Si]([H])C5[Si]64)[Si]4C[Si]([H])C3[Si]1C24,-4.45688969,-3.58749824,117-AH_NRSiC4_2-C_2B.pdb
C1CC2CC3CCCC4C5CCC6C7CCCC8CC9CCCC%10C%11CCC%12C(C1)C2C(C34)C1C%12C%11C(C6C51)C(C9%10)C87,-4.04437093,-2.97171331,118-AH_NR.pdb
OC(O)[C@@]12[C@H]3C4C5[C@@H]6C7C8CCC9CC%10CCC(C[C@H]%11CCC%12CC%13CCC%14CC%15CCC%16C[C@H]%17CCC(C8)C6[C@@H]%17[C@@]6(C(O)O)[C@H]5C5C3[C@H](C%13C%14[C@H]5C%15[C@H]%166)C%12[C@@H]%111)[C@H]2C%10[C@@H]4C97,-4.14124209,-3.26069413,119-ZH_C-2COOH-surf.pdb
O[PH3]C1CC2C3CCCC4C5CCCC6C7CC(N(O)O)CC8C9CCCC%10C%11CCCC%12C(C1)C2C1C(C43)C(C56)C(C78)C(C%109)C1C%11%12,-5.82451455,-2.96110102,120-AHC-POH2-NO2.pdb
C1CC2CC3CCCC4C3C3OC5C(CCC6C7CCC8C9CCCC%10CC%11CCCC%12C%13CCC%14C%15CC[SH]4CC%15C(C65)C4C%14C%13C(C8C74)C(C%11%12)C%109)C(C1)C23,-3.32708897,-2.72327688,121-AH_NR4_3-O-S.pdb
C1CC2CC3CCC4CC5CCC6CC7CCC8CC9CCC%10CC%11CCC%12CC1C1C%13OC%14C(C21)C3C4C1C5C6C2C7C8C3C(C[SH](C%11C%12%13)C%10C93)C2C%141,-3.71130829,-2.54069107,122-ZH_C-O-S.pdb
C1CC2CC3CC4CCCC5C6CCC7C8CCCC9CC%10CC%11CCCC%12C%13CCC%14C(C1)C2C1C3C(C45)C2C6C7N3C(C98)C%10C(C%11%12)N4C%13C%14C1C2C43,-3.36790547,-2.75620219,123-AH_NR3_4-2N.pdb
[H][Si]1C[Si]2C[Si]3C[Si]4C[Si]([H])C[Si]5C6[Si]([H])C[Si]([H])C7[Si]([H])C8[Si]([H])C9[Si]([H])C[Si]([H])C%10[Si](C1)C2[Si]1C3[Si](C45)C([Si]76)[Si]8C1[Si]9%10,-3.96681958,-3.22967359,124-NR-SiC2.pdb
[H][Si]1C[Si]2C(CO)[Si]3C[Si]([H])C[Si]4C5[Si]([H])C[Si]6C7[Si]([H])C[Si]([H])C8[Si](CO)C9[Si]([H])C[Si]([H])C%10[Si]%11C[Si]([H])C%12[Si](C1)C2[Si](C34)C1[Si]%12C%11[Si](C6[Si]51)C([Si]9%10)[Si]87,-4.28654883,-3.97525499,125-NRSiC_2COH.pdb
[H][Si]1C[Si]2C[Si]3C[Si]([H])C4[Si]([H])[C@@H]5[Si]([H])C[Si]6C[Si]7C[Si]([H])[C@@H]8[Si]([H])C9[Si]([H])C[Si]%10C[Si]%11C[Si]([H])C%12[Si]([H])C1[Si]1C2[Si]2C%13[Si]%14[C@@H]1[Si]%12[C@H]%11[Si@@]1(CO)[C@H]%10[Si]9[C@H]9[Si]8[C@@H]7[Si]7C6[Si]5[C@@](CO)([Si]4[C@H]32)[Si]%13[C@H]7[Si]9[C@H]%141,-4.31267139,-3.24491175,126-ZH_SiC-2COH-surf.pdb
[H][Si]1C[Si]2C[Si]([H])C3B4C2B2C1[Si]([H])C[Si]1C[Si]([H])C5[Si]([H])C[Si](C[Si]3[H])C4[Si]5C21,-5.05172215,-4.31974625,127-ZH_SIC-SMALL-2B.pdb
[H][Si]1C[Si]2C[Si]3C[Si]([H])C[Si]4C5[Si]([H])C[Si]6C7[Si]([H])C[Si]([H])C8[Si]([H])C9[Si]([H])C[Si]([H])C%10[Si]%11C[Si]([H])B%12[Si](C1)C2[Si](B1[Si]%12C%11[Si](C6[Si]15)C([Si]9%10)[Si]87)C34,-4.35212734,-3.28137449,128-AHSiC_NR-C_2B.pdb
[H][Si]1C[Si]2C[Si]3C[Si@]([H])C[Si]4S[Si@]5([H])C[Si]6[C@@H]7[Si]([H])C[Si]([H])C8[Si]([H])C9[Si]([H])C[Si]([H])C%10[Si]9C([Si]87)[Si]7[C@@H]6[Si]5[Si@]56S[Si](C34)[C@@H]2[Si](C1)[C@H]5[Si@]([H])C[Si]%10[C@H]76,-4.34641303,-3.29933375,129-AHSiC_NR-C_2S.pdb
OC(O)C1CC2CCC3CC(C(O)O)C4CCC5CCC6CCC1C1C6C5C4C3C21,-5.83186152,-2.50123512,130-ZH_C-SMALL-2COOH-edge.pdb
NC[C@@]12CCC[C@H]3C[C@H]4CC[C@H](C(O)O)C5C6CC[C@@H]7C8C9C%10C(CC[C@H]1C%10[C@H](C68)C(C54)[C@@H]32)C1CCC2C3CCCC4CC5C6C(C43)C3C2C1C9[C@@H]1C3[C@H](CC[C@]17OS)C6CC[C@@H]5OP,-4.73144868,-3.32600053,131-AH_NR4_3-SOH-POH2-CN-COOH.pdb
NCC1CCC2C3CCC4C5CCC6C7CCC(CN)C8CC9C(CN)C%10CCCC%11C%12CCC%13C%14CCC%15C%16CCCC%17C(CN)C%18CC1C2C1C%18C(C%17%16)C2C%15C%14C%14C%15C%13C%12C%12C(C%10%11)C9C(C87)C7C6C5C(C5C4C3C1C2C5%14)C%15C7%12,-4.64056394,-4.39049485,132-AH_NR4_4-4CN.pdb
C1CC2CC3CCC[C@@H]4C3C3O[C@H]5C(CC[C@@H]6[C@H]5[C@H]5[C@H]7C8C(CCCC8[C@H]8CC[S@@H]4C[C@H]58)CC4CCC[C@H]6C47)C(C1)C23,-3.48055901,-2.95048873,133-AH_NR-O-S.pdb
C1CC2CC3CCCC4C5CCCC6CC7CCCC(C(C1)O2)C7C(C[SH]34)C65,-3.65416519,-2.34177866,134-NR-C1-O-S.pdb
C1CC2CC3CC4CCCC5C6CCCC7CC8CC9CCCC%10C(C1)B2C1B3C(C45)C(C76)C8C1C9%10,-4.53580159,-3.47430048,135-NR-C2-2B.pdb
[H][Si]1C[Si]2C3[Si]([H])C[Si]4C5[Si]([H])C(CN)[Si](CN)C6[Si]([H])C7[Si](CN)C8[Si]([H])C(CN)[Si]([H])C9[Si]%10C[Si]([H])C%11[Si]%12C[Si]([H])C%13[Si]%14C[Si](CN)C[Si]%15C(CN)[Si]%16C[Si]%17C(CN)[Si](CN)C[Si]%18C1[Si]1C2[Si]2C%19[Si]3C4[Si]3C([Si]65)[Si]7C([Si]89)[Si]4C%10[Si]%11C([Si]5C%12[Si]%13C6[Si](C%15%14)C%16[Si](C%17%18)C1[Si]6C25)[Si]%19C34,-4.83321782,-4.68382943,136-AHSiC_NR4_4-8CN.pdb
[H][Si]1C[Si]2C[Si]3C[Si]([H])C[Si]4C5[Si]([H])C[Si]6C7[Si]([H])C[Si]([H])C8[Si]7C7[Si]9C%10[Si](C[Si]([H])C%11[Si](C1)C2[Si](C34)C([Si]%11%10)[Si]5C69)C1[Si]([H])C[Si]([H])C([Si]17)[Si]8N(O)O,-3.96001683,-3.61797456,137-AHSiC_NR-NO2-edg.pdb
[H][Si]1C[Si]2C[Si]3C[Si]4C[Si]([H])C[Si]5C6[Si]([H])C[Si]7C8B9C%10B%11C%12[Si](C[Si]([H])C%13[Si](C1)C2[Si]1C3[Si](C45)C([Si]86)[Si]%10C1[Si]%12%13)C1[Si]([H])C[Si]([H])C2[Si]([H])C3[Si]([H])C4[Si]([H])C[Si]([H])C7[Si]4C9[Si]3C%11[Si]21,-4.4680462,-4.11022155,138-AHSiC_NR3_4-2B.pdb
[H][Si]1C[Si]2C[Si]3C[Si]4C[Si]([H])C[Si]5C6[Si]([H])C[Si]7C8[Si]([H])C[Si]9C%10N%11C%12N%13C%14[Si](C[Si]([H])C%15[Si]%16C[Si]([H])C%17[Si](C1)C2[Si]1C3[Si](C45)C2[Si]6C7[Si]3C([Si]%108)[Si]%12C([Si]%14%15)[Si]4C%16[Si]%17C1[Si]2C43)C1[Si]([H])C[Si]([H])C2[Si]([H])C3[Si]([H])C4[Si]([H])C[Si]([H])C9[Si]4C%11[Si]3C%13[Si]21,-3.52627349,-3.36219116,139-AHSiC_NR4_4-2N.pdb
[H][Si]1C[Si]2C[Si]3C[Si]([H])C[Si]4B3[Si]3B2[Si](C1)C1[Si]([H])C[Si]([H])C2[Si]([H])C5[Si]([H])C[Si]([H])C4[Si]5C3[Si]12,-4.25797728,-3.45362012,140-NRSiC-SIC1-C_2B.pdb
OC(O)C1CCC2C3CCCC4C(C(O)O)CCC(C5CCCC1C52)C43,-5.53281263,-2.79946768,141-NR_C0-2COOH-edge.pdb
OC[C@]12[C@@H]3CCC4[C@@H]5CC[C@H]6C7CCCC8CCCC(C87)[C@H]7CCC([C@H](CC[C@H]1C1CCCC8CCCC3C81)[C@H]42)[C@@H]5[C@@]76CO,-4.03430286,-3.23865322,142-AH_NR4_2_2COH_surf.pdb
NCC1CC2CC3CC4CC(CN)C[C@@H]5C6CCC7C8CC(NO)CC9C[C@@H]%10C%11C(C98)C8C9C%12C%13C(CCC%14C(C1)C2C1C(C%14%13)[C@H]9[C@@]([PH3]O)([C@@H]6C78)[C@@H](C31)C45)C1CC(NO)C[C@@H](C1[C@H]%12%11)[C@@H]%10[PH3]O,-5.38968277,-3.68926738,143-AH_NR3_4-POH2-surf-2CN_NO.pdb
NC(O)C1CC2CC(C(N)O)CC3C4CCCC5CCCC(C(C1)C23)C54,-5.28056666,-2.27021373,144-NR_C0-2CONH2.pdb
C1CC2CC3CC4CCCC5C6CCCC7CC8CC9CCCC%10C(C1)C2C1B3C(C(C76)C8C1C9%10)N45,-4.16110612,-3.01198559,145-NR-C2-B-N.pdb
C1CC2CC3CCCC4C3C3C2C(C1)C1CCCC2CC5CCCC4[SH]5C3[SH]21,-3.68654628,-2.01334189,146-NR-C1-2S.pdb
C1CC2CC3CCC4CC5CCC6CC7CCC8CC9CCC%10CC%11CCC%12CC1C1C2C2C3C4C3C5C6C4C7C8N5C9C%10C6C%11C%12C1C1C2C3N4C5C61,-3.28491192,-2.26368309,147-ZH_C-2N.pdb
[H][Si]1C[Si]2C3[Si]([H])C(CO)[Si]([H])C4[Si]5C[Si](C(O)O)C[Si]6C7[Si]([H])C[Si]([H])C8[Si]9C[Si](CO)C[Si]%10C%11[Si]([H])C(C(O)O)[Si]([H])C%12[Si](C1)C2[Si]1C([Si]43)[Si](C65)C([Si]78)[Si](C9%10)C1[Si]%11%12,-5.57308491,-2.61280022,148-AHSIC-2COH_2COOH-EDGE.pdb
[H][Si]1C[Si]2C(CN)[Si]3C[Si]4C(CN)[Si]([H])C[Si]5C6[Si]([H])C[Si]7C8[Si]([H])C[Si]9C%10[Si]([H])C[Si](CN)C%11[Si]([H])C%12[Si](CN)C%13[Si]([H])C[Si]([H])C%14[Si]%15C[Si]([H])C%16[Si]%17C[Si]([H])C%18[Si](C1)C2[Si]1C3[Si](C45)C2[Si]6C7[Si]3C4[Si]8C9[Si]5C([Si]%11%10)[Si]%12C([Si]%13%14)[Si]6C%15[Si]%16C([Si]7C%17[Si]%18C1[Si]2C37)[Si]4C56,-4.31484827,-4.16464355,149-AHSiC_NR4_4-4CN.pdb
[H][Si]1C[Si]2C3[Si]([H])C[Si]4C5[Si]([H])C(NO)[Si]([H])C6[Si]([H])C7[Si]([H])C8[Si]([H])C(NO)[Si]([H])C9[Si]8C8[Si]7[C@@H]([Si]65)[Si]5[C@H]4[Si]3[C@H]3[Si]4C2[Si]2C1[Si]1C[Si](NO)C[Si]6[C@H](OS)[Si]7C[Si]%10C[Si](NO)C[Si]%11C%10[Si]%10C%12[Si]%13C%11[Si]([H])C[Si]%11[C@H]%14[Si]([H])C[Si]9[C@@H]9[Si]8[C@@H]5[Si@@]3(CO)[C@H]([Si]%149)[Si]([C@@H]%13%11)[C@H]4[Si]%12C2[Si]([C@H]%107)[C@@H]16,-4.80355783,-4.31539249,150-AHSiC_NR4_4-4NO-COH_SOH.pdb
[H][Si]1C[Si]2C[Si]([H])C[Si]3C2[Si](C1)C1[Si]([H])C[Si]2B4[Si]([H])C[Si]5C6[Si]([H])C[Si]([H])C7[Si]([H])C[Si]([H])C([Si]8C[Si]([H])N([Si]9C[Si]([H])C3[Si]1C29)[Si]4C58)[Si]76,-4.06586762,-3.18695232,151-AHSiC_NR4_2-C_B-N.pdb
C1CC2CC3CCCC4C5CCCC6CC7CCCC8C(C1)C2C(C34)C(C78)C65,-4.41525686,-2.55266391,152-NR-C1.pdb
C1CC2CC3CC4CCCC5C6CCC7C8CCCC9CC%10CC%11CCCC%12C%13CCC%14C(C1)C2C1C3C(C45)C2C6C7C3C(C98)C%10C(C%11%12)C4C%13C%14C1C2C43,-3.79103652,-3.29742898,153-AH_NR3_4.pdb
O[SH2]C1C2CCCC3C4CCC5C6CCCC7C(S)C8[C@H]9C(C[C@H]%10O[C@@H]8%10)C8CCC%10C%11CCCC1C%11C(C32)C1C4C5C(C8C%101)C9C76,-4.63512174,-3.41797371,154-AH_NR-2SOH-edg.pdb
NO.O[PH3]C1CCC2C3C1CCCC3[C@H]1CC[C@@H]3C4CCC5C6CC[C@@H]([SH2]O)C7CCCC(C8CCC(C4C85)[C@@H]4CC[C@@H]2[C@@]1(C(O)O)[C@@H]34)C67,-4.29416791,-3.86885998,155-AH_NR4_2-CN-COOH-SOH-POH2.pdb
C1CC2CC3CCCC4C3C3B5C6C(CCC7C8CCCC9CC%10CCCC%11C%12CCN4C5C%12C(C76)C(C98)C%10%11)C(C1)C23,-3.81471009,-3.02423054,156-AH_NR-B-N.pdb
C1CC2CC3CCCC4C5CCCC6CC7CCCC8C(C1)B2C(C(C78)C65)N34,-4.44682162,-2.53416043,157-NR-C1-B-N.pdb
C1CC2CC3CC4CCCC5C4C4C3C3C2C(C1)C1CCCC2CC6CC7CCCC5[SH]7C4[SH]6C3C21,-3.64872299,-2.51348007,158-NR-C2-2S.pdb
[H][Si]1C[Si]2C3[Si]4C1[Si]1C[Si](NO)C[Si]5C[Si]6[C@H](OP)[Si]7C[Si@](NO)C[Si]8C9[Si]([H])C[Si]%10C%11[Si]([H])C(CN)[Si]([H])C%12[Si]%11C%11[Si]%13C%10[Si]9C9[Si](C4[Si](C51)[C@@H]6[Si]9[C@H]87)C%13[Si]3[C@H]1[Si]%11[C@H]([Si]%12[H])[Si@]([H])[C@H]3[Si@]([H])[C@H](CN)[Si@]([H])[C@@H]2[Si@]13OP,-4.89280991,-3.58777035,159-AHSiC_NR3_4-POH2-surf-2CN_NO.pdb
[H][Si]1C[Si]2C[Si]3C[Si]([H])C[Si]4C5[Si]([H])C[Si](CN)C6[Si](CN)C7[Si](CN)C[Si]([H])C8[Si](C1)C2[Si](C34)C([Si]87)[Si]56,-4.68219677,-3.72845122,160-NRSiC-SIC1-3CN.pdb
[H][Si]1C[Si]2C(NO)[Si]([H])C3[Si]([H])C[Si]4C(CO)[Si]([H])C5[Si]([H])C(PO)[Si]6C[Si](CO)C1[Si]1C2[Si]3C4[Si]5C61,-5.7018,-3.2855,161-ZH_SiC-SMALL-2COH-poH2-edge.pdb
[H][Si]1C[Si]2C[Si]3C[Si]([H])C4[Si]([H])C5[Si]([H])C[Si]6C[Si]7C[Si]([H])C8[Si]([H])C9[Si]([H])C[Si]%10C[Si]%11C[Si]([H])C%12[Si]([H])C1[Si]1B%13[Si]%14B%15[Si](C21)C3[Si]4C1[Si]%15C2[Si](C6[Si]51)C7[Si]8C1[Si]9C%10[Si](C%11[Si]%13%12)C%14[Si]21,-4.84464644,-3.78096845,162-ZH_SiC-C_2B.pdb
OC[C@H]1C2CCCC3C4CCC5C6CCCC7C6C6C8C9C(CCC%10C%11CCCC1C%11C(C(C4C58)C%109)C32)C1CCCC(C16)[C@@H]7CO,-4.67675457,-3.75266901,163-NR_2COH.pdb
C1CC2CC3CCC4CC5CCC6CC7CCC8CC9CCC%10CC%11CCC%12CC1C1C2C2C3C4C3C5C6C4C7C8[SH]5C9C%10C6C%11C%12C1C1C2C3[SH]4C5C61,-3.646274,-2.27184639,164-ZH_C-2S.pdb
[H][Si]1C[Si]2C3[Si]([H])C[Si]4C5[Si]3C3[Si]6C7[Si](C[Si](SO)C[Si]7[C@@H](SO)[Si](C1)C26)C1[Si]([H])C[Si]2C([Si]13)[Si]5[C@@H]1[Si]3[C@H]([Si][C@H]5[Si]1[C@@H]2[Si]([H])C[Si@@]5([H])OS)[Si]([H])[C@@H](SO)[Si]([H])[C@@H]43,-4.96138163,-4.69770704,165-AHSiC_NR-4SOH-edg.pdb
[H][Si]1C[Si]2C[Si]3C[Si@](NO)C[Si]4C5[Si]6[C@@H]7[Si](C[Si@@]5[H])[C@H]5[Si]([H])C[Si]([H])[C@@H]8[Si]5[C@@]59N(O)O[Si@]5%10[C@H]([Si]5C[Si]([H])C%11[Si](C1)[C@H]2[Si@@](N(O)O)([C@H]34)[C@H]6[Si]%11C5[Si]79)[Si@@]([H])[C@H](NO)[Si]([H])[C@H]%10[Si@@]8[H],-4.73498611,-4.4408352,166-AHSiC_NR-NO2-NO-surf_edg.pdb
[H][Si]1C[Si]2C3[Si]([H])C[Si]4C5[Si]([H])C[Si]([H])C6[Si]7C[Si]([H])C8[Si]9C[Si](C(O)O)C[Si]%10C%11[Si]([H])C[Si]%12C%13[Si]([H])C[Si]([H])C%14[Si]%15C[Si]([H])C%16[Si]%17C[Si]([H])C[Si]%18C%19[Si]([H])C[Si]%20C%21[Si]([H])C(CO)[Si]([H])C%22[Si]%23C[Si]([H])C%24[Si](C1)C2[Si]1C2[Si]3C4[Si]3C([Si]65)[Si]4C7[Si]8C5[Si](C9%10)C6[Si]%11C%12[Si]7C([Si]%13%14)[Si]8C%15[Si]%16C9[Si](C%18%17)C%10[Si]%19C%20[Si]%11C([Si]%21%22)[Si]%12C%23[Si]%24C1[Si]1C%12[Si]%12C%11[Si]%10C%10[Si]%11C%13[Si]%14C([Si]5C4[Si]4C3[Si]2C1[Si@@](C(O)O)(C4%14)C%12%11)[Si]6C7[Si]%13[C@]8(CO)[Si]9%10,-4.7782516,-2.8952504,167-AHSiC2-2COOH-2COH.pdb
[H][Si]1C[Si]2C[Si]([H])C[Si]3C2[Si](C1)N1[Si]([H])C[Si]([H])C2[Si]([H])C[Si]([H])N3[Si]21,-3.11375473,-2.01143712,168-NRSiC_SiC0-C_2N.pdb
[H][Si]1C[Si]2C[Si]([H])C3[Si]([H])C[Si]4C[Si]([H])C5[Si]([H])C[Si]6C[Si]([H])C1[Si]1B2[Si]3C4[Si]5B61,-5.10532782,-3.82885981,169-ZH_SIC-SMALL-C_2B.pdb
C1CC2CC3CCCC4C5CCC6C7CCC8C9CCCC%10CC%11CCCC%12C%13CCC%14C%15CCC%16C(C1)C2C(C34)C1C%16C%15C(C6C51)C1C%14C%13C(C8C71)C(C%11%12)C%109,-3.82967614,-3.21416332,170-AH_NR4_3.pdb
NCC1CCC2C3CCCC4CC5CCCC6C7CCC(CN)C8C(CN)C1C2C(C78)C(C43)C56,-5.36274388,-3.67130812,171-NR-C1-3CN.pdb
O[SH2]O[C@H]1[C@H]2CC3CCCC4C5CCC[C@@H]6C5[C@H]5C(C34)[C@@H]2[C@@H]2C3C4C(CCCC4C4CCC[C@@H]1[C@@H]42)C[C@H]([C@@H]6O[SH2]O)[C@H]35,-5.23838961,-2.41252726,172-NR-C2-SO2H.pdb
OCC1CC2CC([PH3]O)C3CC(CO)C4CCC5C(NO)CC6CCC1C1C6C5C4C3C21,-6.52,-3.6661,173-ZH_C-SMALL-2COH-poH2-edge.pdb
C1CB2C3CCCC4CCCC(B5CCCC(C1)C25)C43,-5.4204312,-3.67021968,174-NR_C0-2B.pdb
[H][Si]1C[Si]2C[Si]3C[Si]([H])C[Si]4C5[Si]([H])C[Si]6C7[Si]([H])C[Si]([H])C8[Si](CO)C9[Si]([H])C[Si]([H])C%10[Si]%11C[Si]([H])C%12[Si](C1)C2[Si](C34)C1[Si]%12C%11[Si](C6[Si]51)C([Si]9%10)[Si]87,-4.04028928,-3.7415125,175-NRSiC_COH-edge.pdb
[H][Si]1C[Si]2C[Si]([H])C[Si]3C2[Si](C1)C1[Si]([H])C[Si]2C4[Si]([H])C[Si]5C6[Si]([H])C[Si]([H])C7[Si]([H])C[Si]([H])C([Si]8C[Si]([H])C([Si]9C[Si]([H])C3[Si]1C29)[Si]4C58)[Si]76,-4.02233002,-3.15865288,176-AHSiC_NR4_2.pdb
[H][Si]1C[Si]2C[Si]3C[Si]([H])C4[Si](CN)C5[Si]([H])C[Si]6C[Si]7C[Si]([H])C8[Si]([H])C9[Si]([H])C[Si]%10C%11[Si]9C9[Si]8C7[Si]7C6[Si]5C5[Si]4C3[Si]3C2[Si]2C1[Si]([H])C1[Si]([H])C[Si](C4[Si]1C2[Si]1C3[Si]5C7[Si]9C1[Si]4%11)C%10[SH](O)O,-5.30723344,-2.72681431,177-ZH_SiC-COH-POH2-CN-edg.pdb
[H][Si]1C[Si]2C[Si]3C[Si]([H])C[Si]4C5B6C([Si]([H])C[Si]5[H])[Si]([H])C5B7C([Si]([H])C[Si]5[H])[Si](C1)C2[Si](C76)C34,-5.29961436,-4.08736431,178-NR-SIC1-2B.pdb
OCC1CC2C3CCCC4C5CC(C(O)O)CC6C7CC(CO)CC8C9CCCC%10C%11CC(C(O)O)CC%12C(C1)C2C1C(C34)C(C56)C(C87)C(C9%10)C1C%11%12,-5.94750827,-2.72463743,179-AHC-2COH_2COOH-EDGE.pdb
NCC1CC2C3CCCC4C5CCCC6C7CC(NO)CC8C9CC([SH](O)O)CC%10C%11CCCC%12C(C1)C2C1C(C43)C(C56)C(C78)C(C%109)C1C%12%11,-6.17662489,-3.3660007,180-AHC-NO-CN-SO2H.pdb
[H][Si]1C[Si]2C[Si]([H])C3[Si](C(O)O)C[Si]4C[Si]([H])C5[Si]([H])C(C(O)O)[Si]6C[Si]([H])C1[Si]1C2[Si]3C4[Si]5C61,-5.45553339,-2.45688119,181-ZH_SIC-SMALL-2COOH-edge.pdb
[H][Si]1C[Si]2C[Si]([H])C[Si]3[C@@H]2[Si](C1)[C@@H]1[Si@]([H])C[Si]2[C@@H]4[Si](C[Si@]([H])[C@H]3[Si@]41CO)[C@H]1[Si]3[C@@H]2[Si@]([H])C[Si]2[C@@H]4[Si]([H])C[Si]([H])C5[Si]([H])C[Si]([H])C([Si]54)[Si](C[Si@]1[H])[C@]23CO,-3.93715959,-3.6027364,182-AHSiC_NR4_2_2COH_surf.pdb
[H][Si]1C[Si]2C[Si]3C[Si]([H])C[Si]4C5[Si]([H])C[Si]6C7[Si]([H])C[Si]8C9[Si]([H])C[Si]([H])C%10[Si]([H])C%11[Si]([H])C[Si]([H])C%12[Si]%13C[Si]([H])C%14[Si]%15C[Si]([H])C%16[Si](C1)C2[Si](C34)C1[Si]%16C%15[Si](C6[Si]51)C1[Si]%14C%13[Si](C8[Si]71)C([Si]%11%12)[Si]%109,-3.69607013,-3.50586524,183-AHSiC_NR4_3.pdb